
     Program PWSCF v.7.4 starts on 13Jun2025 at 19:45:51 

     This program is part of the open-source Quantum ESPRESSO suite
     for quantum simulation of materials; please cite
         "P. Giannozzi et al., J. Phys.:Condens. Matter 21 395502 (2009);
         "P. Giannozzi et al., J. Phys.:Condens. Matter 29 465901 (2017);
         "P. Giannozzi et al., J. Chem. Phys. 152 154105 (2020);
          URL http://www.quantum-espresso.org", 
     in publications or presentations arising from this work. More details at
     http://www.quantum-espresso.org/quote

     Serial version
     8130 MiB available memory on the printing compute node when the environment starts

     Waiting for input...
     Reading input from standard input

     Current dimensions of program PWSCF are:
     Max number of different atomic species (ntypx) = 10
     Max number of k-points (npk) =  40000
     Max angular momentum in pseudopotentials (lmaxx) =  4


     G-vector sticks info
     --------------------
     sticks:   dense  smooth     PW     G-vecs:    dense   smooth      PW
     Sum        1159     583    187                26229     9257    1639

     Using Slab Decomposition



     bravais-lattice index     =            2
     lattice parameter (alat)  =      10.2600  a.u.
     unit-cell volume          =     270.0114 (a.u.)^3
     number of atoms/cell      =            2
     number of atomic types    =            1
     number of electrons       =         8.00
     number of Kohn-Sham states=            4
     kinetic-energy cutoff     =      40.0000  Ry
     charge density cutoff     =     320.0000  Ry
     scf convergence threshold =      1.0E-08
     mixing beta               =       0.7000
     number of iterations used =            8  plain     mixing
     Exchange-correlation= PBE
                           (   1   4   3   4   0   0   0)

     celldm(1)=  10.260000  celldm(2)=   0.000000  celldm(3)=   0.000000
     celldm(4)=   0.000000  celldm(5)=   0.000000  celldm(6)=   0.000000

     crystal axes: (cart. coord. in units of alat)
               a(1) = (  -0.500000   0.000000   0.500000 )  
               a(2) = (   0.000000   0.500000   0.500000 )  
               a(3) = (  -0.500000   0.500000   0.000000 )  

     reciprocal axes: (cart. coord. in units 2 pi/alat)
               b(1) = ( -1.000000 -1.000000  1.000000 )  
               b(2) = (  1.000000  1.000000  1.000000 )  
               b(3) = ( -1.000000  1.000000 -1.000000 )  


     PseudoPot. # 1 for Si read from file:
     /content/qe-lite/pseudopotentials/Si.upf
     MD5 check sum: 0b0bb1205258b0d07b9f9672cf965d36
     Pseudo is Ultrasoft + core correction, Zval =  4.0
     Generated using "atomic" code by A. Dal Corso  v.5.1
     Using radial grid of 1141 points,  6 beta functions with: 
                l(1) =   0
                l(2) =   0
                l(3) =   1
                l(4) =   1
                l(5) =   2
                l(6) =   2
     Q(r) pseudized with 0 coefficients 


     atomic species   valence    mass     pseudopotential
     Si                4.00    28.08550     Si( 1.00)

     48 Sym. Ops., with inversion, found (24 have fractional translation)



   Cartesian axes

     site n.     atom                  positions (alat units)
         1        Si     tau(   1) = (   0.0000000   0.0000000   0.0000000  )
         2        Si     tau(   2) = (  -0.2500000   0.2500000   0.2500000  )

     number of k points=    16
                       cart. coord. in units 2pi/alat
        k(    1) = (   0.0000000   0.0000000   0.0000000), wk =   0.0092593
        k(    2) = (  -0.1666667   0.1666667  -0.1666667), wk =   0.0740741
        k(    3) = (  -0.3333333   0.3333333  -0.3333333), wk =   0.0740741
        k(    4) = (   0.5000000  -0.5000000   0.5000000), wk =   0.0370370
        k(    5) = (   0.0000000   0.3333333   0.0000000), wk =   0.0555556
        k(    6) = (  -0.1666667   0.5000000  -0.1666667), wk =   0.2222222
        k(    7) = (   0.6666667  -0.3333333   0.6666667), wk =   0.2222222
        k(    8) = (   0.5000000  -0.1666667   0.5000000), wk =   0.2222222
        k(    9) = (   0.3333333   0.0000000   0.3333333), wk =   0.1111111
        k(   10) = (   0.0000000   0.6666667   0.0000000), wk =   0.0555556
        k(   11) = (   0.8333333  -0.1666667   0.8333333), wk =   0.2222222
        k(   12) = (   0.6666667  -0.0000000   0.6666667), wk =   0.1111111
        k(   13) = (   0.0000000  -1.0000000   0.0000000), wk =   0.0277778
        k(   14) = (   0.6666667  -0.3333333   1.0000000), wk =   0.2222222
        k(   15) = (   0.5000000  -0.1666667   0.8333333), wk =   0.2222222
        k(   16) = (  -0.3333333  -1.0000000   0.0000000), wk =   0.1111111

     Dense  grid:    26229 G-vectors     FFT dimensions: (  48,  48,  48)

     Smooth grid:     9257 G-vectors     FFT dimensions: (  32,  32,  32)

     Estimated max dynamical RAM per process >      96.88 MB

     Initial potential from superposition of free atoms

     starting charge       7.9989, renormalised to       8.0000
     Starting wfcs are    8 randomized atomic wfcs

     total cpu time spent up to now is        1.9 secs

     Self-consistent Calculation

     iteration #  1     ecut=    40.00 Ry     beta= 0.70
     Davidson diagonalization with overlap
     ethr =  1.00E-02,  avg # of iterations =  2.0

     Threshold (ethr) on eigenvalues was too large:
     Diagonalizing with lowered threshold

     Davidson diagonalization with overlap
     ethr =  6.33E-04,  avg # of iterations =  1.4

     total cpu time spent up to now is        2.8 secs

     total energy              =     -22.83532760 Ry
     estimated scf accuracy    <       0.05478178 Ry

     iteration #  2     ecut=    40.00 Ry     beta= 0.70
     Davidson diagonalization with overlap
     ethr =  6.85E-04,  avg # of iterations =  1.0

     total cpu time spent up to now is        3.4 secs

     total energy              =     -22.83714974 Ry
     estimated scf accuracy    <       0.00288459 Ry

     iteration #  3     ecut=    40.00 Ry     beta= 0.70
     Davidson diagonalization with overlap
     ethr =  3.61E-05,  avg # of iterations =  2.7

     total cpu time spent up to now is        3.9 secs

     total energy              =     -22.83786823 Ry
     estimated scf accuracy    <       0.00010119 Ry

     iteration #  4     ecut=    40.00 Ry     beta= 0.70
     Davidson diagonalization with overlap
     ethr =  1.26E-06,  avg # of iterations =  3.8

     total cpu time spent up to now is        4.5 secs

     total energy              =     -22.83793579 Ry
     estimated scf accuracy    <       0.00001144 Ry

     iteration #  5     ecut=    40.00 Ry     beta= 0.70
     Davidson diagonalization with overlap
     ethr =  1.43E-07,  avg # of iterations =  3.4

     total cpu time spent up to now is        5.1 secs

     total energy              =     -22.83794097 Ry
     estimated scf accuracy    <       0.00000038 Ry

     iteration #  6     ecut=    40.00 Ry     beta= 0.70
     Davidson diagonalization with overlap
     ethr =  4.79E-09,  avg # of iterations =  5.6

     total cpu time spent up to now is        5.7 secs

     total energy              =     -22.83794137 Ry
     estimated scf accuracy    <       0.00000009 Ry

     iteration #  7     ecut=    40.00 Ry     beta= 0.70
     Davidson diagonalization with overlap
     ethr =  1.15E-09,  avg # of iterations =  2.4

     total cpu time spent up to now is        6.2 secs

     End of self-consistent calculation

          k = 0.0000 0.0000 0.0000 (  1139 PWs)   bands (ev):

    -5.7503   6.2183   6.2183   6.2183

          k =-0.1667 0.1667-0.1667 (  1167 PWs)   bands (ev):

    -5.3890   3.8348   5.7666   5.7666

          k =-0.3333 0.3333-0.3333 (  1149 PWs)   bands (ev):

    -4.3727   0.8789   5.2156   5.2156

          k = 0.5000-0.5000 0.5000 (  1158 PWs)   bands (ev):

    -3.4171  -0.7582   5.0172   5.0172

          k = 0.0000 0.3333 0.0000 (  1162 PWs)   bands (ev):

    -5.2660   4.1795   5.0225   5.0225

          k =-0.1667 0.5000-0.1667 (  1151 PWs)   bands (ev):

    -4.4502   1.7784   4.2223   4.4686

          k = 0.6667-0.3333 0.6667 (  1153 PWs)   bands (ev):

    -3.2578  -0.3932   3.4376   4.4385

          k = 0.5000-0.1667 0.5000 (  1156 PWs)   bands (ev):

    -3.6432   0.2068   3.1664   4.9183

          k = 0.3333 0.0000 0.3333 (  1147 PWs)   bands (ev):

    -4.8004   2.4982   3.8014   5.6520

          k = 0.0000 0.6667 0.0000 (  1150 PWs)   bands (ev):

    -3.8451   1.2045   3.7962   3.7962

          k = 0.8333-0.1667 0.8333 (  1149 PWs)   bands (ev):

    -2.6804  -0.3513   2.5806   3.6596

          k = 0.6667-0.0000 0.6667 (  1141 PWs)   bands (ev):

    -2.4839  -0.5567   1.7989   4.1025

          k = 0.0000-1.0000 0.0000 (  1162 PWs)   bands (ev):

    -1.6036  -1.6036   3.3611   3.3611

          k = 0.6667-0.3333 1.0000 (  1151 PWs)   bands (ev):

    -3.4596   0.5708   2.6432   3.9193

          k = 0.5000-0.1667 0.8333 (  1152 PWs)   bands (ev):

    -2.4738  -0.6300   2.2029   3.4519

          k =-0.3333-1.0000 0.0000 (  1154 PWs)   bands (ev):

    -1.4834  -1.4834   2.5676   2.5676

     highest occupied level (ev):     6.2183

!    total energy              =     -22.83794139 Ry
     estimated scf accuracy    <          8.6E-09 Ry

     The total energy is the sum of the following terms:
     one-electron contribution =       5.17061080 Ry
     hartree contribution      =       1.10429874 Ry
     xc contribution           =     -12.31192135 Ry
     ewald contribution        =     -16.80092957 Ry

     convergence has been achieved in   7 iterations

     Writing all to output data dir ./tmp/silicon.save/ :
     XML data file, charge density, pseudopotentials, collected wavefunctions

     init_run     :      1.35s CPU      1.64s WALL (       1 calls)
     electrons    :      3.59s CPU      4.36s WALL (       1 calls)

     Called by init_run:
     wfcinit      :      0.22s CPU      0.23s WALL (       1 calls)
     potinit      :      0.24s CPU      0.27s WALL (       1 calls)
     hinit0       :      0.75s CPU      0.79s WALL (       1 calls)

     Called by electrons:
     c_bands      :      1.15s CPU      1.17s WALL (       8 calls)
     sum_band     :      1.20s CPU      1.64s WALL (       8 calls)
     v_of_rho     :      0.40s CPU      0.47s WALL (       8 calls)
     newd         :      0.95s CPU      1.42s WALL (       8 calls)
     mix_rho      :      0.02s CPU      0.02s WALL (       8 calls)

     Called by c_bands:
     init_us_2    :      0.11s CPU      0.11s WALL (     272 calls)
     cegterg      :      0.91s CPU      0.92s WALL (     128 calls)

     Called by *egterg:
     cdiaghg      :      0.03s CPU      0.03s WALL (     469 calls)
     h_psi        :      0.98s CPU      1.00s WALL (     501 calls)
     s_psi        :      0.03s CPU      0.03s WALL (     501 calls)
     g_psi        :      0.01s CPU      0.01s WALL (     357 calls)

     Called by h_psi:
     h_psi:calbec :      0.05s CPU      0.05s WALL (     501 calls)
     vloc_psi     :      0.89s CPU      0.91s WALL (     501 calls)
     add_vuspsi   :      0.03s CPU      0.03s WALL (     501 calls)

     General routines
     calbec       :      0.06s CPU      0.06s WALL (     629 calls)
     fft          :      0.42s CPU      0.46s WALL (     103 calls)
     ffts         :      0.16s CPU      0.16s WALL (      16 calls)
     fftw         :      0.70s CPU      0.72s WALL (    3956 calls)
     interpolate  :      0.17s CPU      0.17s WALL (       8 calls)


     PWSCF        :      5.16s CPU      6.25s WALL


   This run was terminated on:  19:45:57  13Jun2025            

=------------------------------------------------------------------------------=
   JOB DONE.
=------------------------------------------------------------------------------=
